# vtk DataFile Version 1.0
Net Charge Density
ASCII
DATASET STRUCTURED_POINTS
DIMENSIONS 256 128 1
ORIGIN 0 0 0
SPACING 0.15625 0.15625 1
POINT_DATA 32768
SCALARS rhonet float
LOOKUP_TABLE default
5.8735e-05
1.06301e-05
-9.9388e-05
9.08014e-05
-0.000232091
-7.85291e-05
-0.000363588
-0.000364877
0.000120229
-4.59532e-05
6.61941e-05
3.80478e-05
-0.000164195
-4.22375e-05
3.06498e-05
0.000101287
5.59539e-06
1.33275e-05
8.85425e-05
0.000131721
1.43267e-05
0.000131554
0.000131975
-6.1431e-05
-1.56156e-05
-1.33169e-05
4.35323e-06
2.6442e-05
0.000364369
-0.000165511
-0.000331479
-0.000151947
0.000194044
0.000226689
0.000190277
0.000101772
0.000126781
-1.75065e-06
-6.59762e-05
8.12067e-06
-2.41331e-05
-4.29483e-05
-0.000248785
5.95759e-05
0.000157907
-2.97842e-05
0.000178286
-0.000125351
-6.79845e-05
0.000145106
6.34389e-05
6.23227e-05
-0.000208071
-2.15723e-05
-0.000179748
-0.000158877
0.000120358
0.000218331
2.9389e-06
-1.18501e-05
-0.000246535
-3.82204e-05
-0.000104797
0.000236548
5.15721e-05
0.000318537
4.6001e-05
9.85261e-05
-0.000137051
-0.000226491
-1.23188e-05
-0.000130815
-0.000118454
3.59328e-06
-0.000222207
-3.01512e-05
-0.000166855
-2.33252e-05
-6.44178e-05
5.46151e-06
-0.000147513
7.23517e-05
-0.000213995
-7.209e-05
-0.000150109
-7.97522e-05
0.0001362
-0.000152257
-8.92414e-05
0.00027729
0.00015773
-0.000106687
-0.0001108
6.92841e-05
-0.000211673
1.12634e-05
-0.000241341
7.39938e-05
-0.000148233
-8.65972e-05
-0.000264617
-0.000245959
-0.0001293
-0.000184912
-0.000179132
-9.62953e-05
-8.80741e-05
-2.07478e-05
-6.29224e-05
-0.000338285
-0.000426938
-0.000198057
8.30565e-05
7.333e-06
-3.75579e-06
-1.95869e-06
0.000260313
2.03756e-05
0.00021897
7.24968e-05
0.000130073
-9.3355e-05
-9.45826e-05
6.47117e-05
0.000299254
8.90607e-05
-4.69014e-05
3.75184e-05
0.000252819
-0.000137519
-0.000120828
-3.43302e-05
-0.000172964
-0.00014323
-0.000198306
0.000148437
0.000168635
-1.04657e-06
-4.4028e-05
-0.000197744
-0.000197052
-4.47831e-05
0.000191855
5.41974e-05
-4.2855e-05
7.03003e-05
0.000128653
-1.10044e-05
4.99347e-05
0.000234843
-0.000225511
2.99095e-05
0.000151112
6.36792e-05
8.26339e-05
-9.33093e-05
-0.000161884
7.19342e-06
8.77911e-06
-7.55526e-05
-0.000105473
-0.000182211
5.21139e-05
3.3778e-05
0.000117267
6.01647e-05
0.000115004
0.000159142
0.000358971
9.96379e-05
-7.62171e-05
-5.3658e-05
-0.000127415
0.000106273
6.58283e-05
-0.000161127
0.000124691
-7.59102e-05
-0.000212593
-2.01378e-05
0.000183738
0.000135217
-0.000197305
-0.000124307
8.11556e-05
0.000234453
0.000189138
5.45625e-05
-0.000219122
0.000153666
6.39381e-05
0.000284897
0.000205136
3.1638e-05
-0.000247609
8.5758e-05
0.000180822
2.58607e-05
0.000256341
-4.35169e-05
-1.89187e-06
2.42926e-05
-0.000177723
-0.000184805
-4.22942e-05
-0.000104126
-5.98894e-05
-0.000103959
4.11232e-05
2.53266e-05
-0.000132877
-6.4089e-06
0.000284086
0.00024847
-7.97946e-05
-1.73394e-05
9.21846e-05
0.000166003
0.000124715
-6.97817e-06
-2.33034e-05
-0.000223495
0.000144244
0.000180859
-0.000221776
0.000137385
9.47679e-06
0.000189779
-7.37449e-05
3.56726e-05
9.31968e-05
-0.000229778
3.1258e-05
0.000169552
-9.79223e-05
-5.67107e-05
0.000137698
5.3169e-05
-2.38575e-05
7.89663e-05
-5.87621e-05
-0.000305449
-0.000210673
7.51648e-05
1.51613e-05
-0.000116205
-5.3633e-05
-0.000164748
-7.5784e-05
8.80939e-05
-6.37926e-05
-1.55767e-05
8.90873e-05
-0.000232183
-0.00025779
0.000207532
-4.13564e-05
4.87791e-05
0.000180581
-2.91131e-06
3.36404e-05
-0.000195413
8.48302e-05
-0.000126264
0.000243667
-0.000161709
-2.94049e-05
7.56956e-06
2.6572e-05
-4.54148e-05
-3.88771e-05
0.000173476
8.63188e-05
-2.51007e-05
0.000134278
3.46322e-05
9.05617e-05
0.000174783
3.01136e-05
7.47619e-05
-4.82032e-05
-8.40868e-05
0.000283168
-7.47611e-05
-4.81269e-05
-9.91063e-05
-0.000121577
-4.68942e-05
-3.23157e-06
0.000145022
-6.59539e-06
-3.25324e-05
-6.07385e-05
7.01221e-05
4.87005e-05
1.79589e-05
-7.26475e-05
-1.4603e-05
-0.000205335
5.5955e-05
0.000101801
0.000177096
0.000155183
-0.000100669
-0.00010634
-8.44133e-05
-0.000203194
-0.000179184
-0.000204149
0.00011172
-7.76978e-05
5.16446e-05
5.00455e-05
-5.10307e-06
1.56674e-05
5.55648e-05
6.37297e-05
-0.000103936
-3.90864e-05
2.27091e-05
-0.000211256
0.000171588
7.64243e-06
4.21377e-06
-0.00015291
6.7713e-05
0.000149687
-6.43226e-05
-7.02457e-05
-3.4956e-05
-3.81481e-05
-1.21592e-05
-0.000166618
1.57969e-05
5.33047e-05
0.000123593
-5.69493e-05
4.71459e-06
5.9274e-05
7.80773e-05
-0.00017485
-0.000173717
2.49138e-05
-1.01556e-05
9.40929e-05
3.8801e-05
3.38349e-06
-6.67966e-05
-3.80094e-05
1.99096e-05
-1.02882e-05
5.78846e-05
3.87272e-05
6.89849e-05
-5.81085e-05
6.43486e-05
-0.000123662
-4.98921e-05
-9.46538e-06
6.53057e-05
-0.000137196
-0.000150823
-0.000213395
0.000158817
8.88202e-05
-0.000144888
-5.6949e-05
0.000125267
-6.88829e-06
6.18089e-05
-1.19731e-05
5.16733e-06
7.57745e-05
3.15697e-05
-9.80955e-05
-3.35573e-05
-5.84829e-05
-3.16512e-05
-7.13749e-05
7.65218e-05
-3.93256e-05
-4.98293e-06
-0.000128252
5.59993e-06
1.49898e-05
-0.000138071
-0.000133503
-5.42435e-05
-9.88636e-05
-0.000183223
-2.6228e-05
7.34808e-05
1.72182e-05
-3.49672e-05
-2.55872e-05
-0.000123441
-7.02241e-06
4.11831e-05
0.000149937
0.000101463
-2.81914e-05
-0.000187616
3.23486e-05
0.000165547
8.48225e-06
-5.41714e-05
-0.000196316
-0.00015749
0.000135399
8.50519e-06
-8.00357e-05
-0.00013472
3.31448e-05
-5.50025e-05
-7.53561e-05
8.11031e-06
-0.000115536
-0.000169172
-9.44932e-05
0.000143108
9.68759e-05
-4.20252e-05
-1.74972e-06
3.32114e-05
9.94636e-05
-0.000105991
0.000109746
2.1277e-05
-3.54624e-06
7.83282e-05
9.7618e-05
9.15071e-06
7.86767e-05
-0.000113971
-0.000194176
-0.000146632
-3.57805e-05
6.3139e-06
8.34465e-06
-0.000144804
-5.9574e-05
5.38249e-05
0.000114409
-0.000208672
-0.000151357
4.60877e-06
9.67138e-05
0.000116084
-1.32015e-06
-7.88511e-05
-6.66468e-05
3.07704e-05
0.00015923
-5.35416e-05
-4.10469e-05
-7.6366e-05
-1.70573e-05
-2.78723e-05
1.20334e-05
7.36808e-05
0.00014188
-8.14407e-05
3.2082e-05
-1.82353e-06
-0.000101124
0.000119964
3.20906e-05
-0.000136323
4.64366e-05
0.000243952
3.77537e-05
-2.74202e-05
-4.27958e-05
-4.92333e-05
-0.000124257
0.000169281
0.000126542
-0.000119842
9.68644e-05
-9.12882e-06
-0.000146845
-6.46687e-06
8.67965e-05
6.65559e-05
-0.000180063
-7.90809e-06
0.000249813
0.000123516
-6.96909e-06
7.01253e-05
-0.000128961
2.7349e-05
0.00010495
0.00018933
9.75408e-05
8.44555e-05
1.13085e-05
-0.000107111
-7.37724e-07
8.65372e-05
4.59974e-05
-0.000141505
1.44966e-05
-0.000192186
-7.65525e-05
3.21148e-05
0.000153685
5.15743e-06
-7.24085e-05
-0.000103594
-4.66318e-05
9.58608e-05
-0.000104792
-9.39653e-05
-1.96761e-05
-2.63816e-05
3.55074e-05
-5.87921e-05
-4.97674e-05
-9.4519e-05
-0.000106113
5.00071e-05
3.67755e-05
7.32082e-05
-0.000137083
-6.21249e-05
2.33975e-05
-9.75602e-05
5.95867e-05
-1.72596e-05
-1.48511e-06
0.000187278
8.72968e-05
-0.0001074
7.56598e-05
-2.02219e-05
3.23835e-05
-3.48692e-05
5.19282e-05
-5.03459e-05
8.99103e-05
0.000115371
4.53993e-05
-5.1473e-05
-9.74219e-05
1.7547e-05
5.44499e-05
-3.23365e-05
-0.000174535
7.09435e-05
4.58278e-05
-0.000113173
4.07728e-05
-5.06821e-05
-2.83747e-05
-0.000111603
6.8802e-05
-4.45981e-05
-2.78418e-05
1.81101e-05
7.11196e-05
0.000201746
-3.94252e-05
3.50055e-05
0.000246358
-6.62496e-06
0.000109721
-0.000187663
-7.08816e-05
6.96531e-05
1.13791e-05
-7.39004e-07
-8.27106e-05
-5.60752e-05
0.000106456
9.63198e-05
9.78268e-05
5.12558e-05
-9.96374e-05
7.48421e-05
9.0336e-06
1.75218e-05
0.000103265
0.000142149
0.000193893
0.000106107
-0.000126293
-7.79368e-05
-1.9152e-05
-0.00010056
-0.000238016
3.35858e-06
-0.000110395
-0.000285115
0.000225206
0.00016704
2.23001e-05
0.000164771
4.24414e-05
-0.000147542
7.10585e-05
5.54222e-05
-3.11362e-05
4.70631e-05
-3.71324e-05
1.36867e-05
-9.35048e-07
0.000157492
-5.48494e-05
-0.000157901
-0.000176159
0.000137623
9.63535e-05
2.66666e-05
-2.89488e-05
0.000107707
8.32041e-05
-6.99845e-05
1.7446e-05
6.3065e-05
-0.000102425
-0.000127538
0.00017773
0.000230319
-2.99488e-05
-1.1969e-05
-7.5202e-06
1.7533e-05
-0.000163558
-9.38672e-05
-3.68496e-05
-0.000105377
-6.43302e-05
-0.000109072
-0.000141023
-2.30002e-05
-4.24264e-06
1.35659e-05
-6.92667e-05
8.69052e-06
8.985e-05
0.000100431
2.75094e-05
-2.90506e-05
-6.54794e-05
-3.44382e-05
7.28096e-06
-5.75819e-05
-3.80338e-05
0.000155974
5.75599e-05
-6.52762e-05
8.8247e-05
-0.000191667
-2.70858e-05
0.000118844
4.23095e-05
0.0002542
8.37746e-05
-6.61573e-05
-3.62034e-05
-5.17061e-05
-8.52742e-06
0.000172067
-2.97603e-05
-0.00017129
-0.000237476
-0.000126924
3.65637e-05
-4.84353e-05
7.6102e-05
6.73967e-05
4.17433e-05
4.86063e-05
-0.000261407
-7.53849e-05
-3.26353e-05
-7.41554e-06
6.24913e-05
-4.25966e-05
-2.10295e-05
-4.89283e-05
1.01674e-05
9.19681e-05
-5.24942e-05
-1.2932e-05
0.000166856
-6.49549e-05
-2.79837e-05
-0.0001171
4.5347e-05
0.000164091
9.85973e-05
6.85413e-05
1.9643e-05
-8.02263e-05
5.16477e-06
0.000108099
-9.36971e-05
-4.8982e-05
6.63383e-05
9.53685e-05
7.62707e-06
-6.3877e-05
-1.43755e-05
-3.50859e-05
7.91164e-05
1.83628e-05
0.00010807
3.21136e-05
3.0566e-05
-0.000180317
-6.8228e-05
3.55199e-05
0.000119751
-3.30473e-05
0.000101039
-5.46926e-05
-1.77051e-05
9.00659e-06
-9.47609e-06
0.000113471
0.000173082
-0.00012869
2.44268e-05
0.000113626
-0.000189193
-2.90548e-05
2.86985e-05
-3.16423e-05
-0.000132109
1.05556e-05
5.14979e-05
-2.07399e-05
0.000126014
4.87471e-05
-7.56194e-05
-2.25148e-05
0.000115043
-8.74596e-05
-0.000119891
0.000137877
7.33746e-05
7.4333e-05
-3.52687e-05
-7.43028e-05
7.02075e-05
2.60328e-06
0.000152296
-0.00011466
-5.15442e-05
-0.000132954
0.000145036
-8.05703e-05
2.92889e-06
8.6074e-05
0.000147346
5.84973e-05
0.00011907
7.51626e-05
-4.89291e-05
0.000208775
5.42923e-05
-5.3636e-05
-7.41235e-05
6.13426e-05
-1.71743e-05
-4.87168e-05
-9.67761e-06
-6.20526e-05
9.65502e-06
3.09276e-05
-0.000223091
0.000145775
0.000181569
-2.8732e-05
3.45324e-05
0.000109215
-2.09825e-05
-7.11239e-05
-6.61064e-05
-0.000149916
-3.8197e-05
-0.000132255
0.000153569
-6.23629e-05
-0.00020609
5.66893e-05
2.90119e-05
-0.000163411
-8.57756e-05
-0.00011435
-7.35311e-05
-7.727e-05
-5.72193e-06
9.38014e-05
-2.46145e-05
6.4741e-05
0.00010554
5.52488e-05
2.34308e-05
0.000193225
3.95374e-05
-8.09191e-05
1.51275e-05
-1.8537e-05
-8.33462e-05
-2.31038e-05
0.000176997
4.6319e-05
5.12726e-05
7.39814e-05
6.43963e-05
-7.84174e-05
-0.000101635
0.000103826
0.000123795
4.58716e-05
-5.76543e-05
-7.02551e-05
-9.93544e-05
-9.6128e-05
-1.14939e-05
-6.18461e-05
-4.4417e-05
2.73704e-05
-0.000164857
7.11042e-06
0.000109172
9.8201e-06
-0.000109888
-0.000121435
-3.05651e-05
8.35002e-05
-3.45137e-06
7.87256e-05
-7.64123e-05
-8.43579e-05
-7.53177e-05
1.22251e-05
0.000162435
6.02809e-05
1.63647e-05
-3.87286e-05
-0.000114828
-0.00012771
1.09415e-05
-3.77272e-05
-2.41613e-05
-1.87757e-05
4.46386e-05
6.77931e-05
3.53942e-05
0.000212534
1.85368e-05
-0.000166699
0.000149613
9.42834e-05
3.54368e-07
8.39937e-05
1.39154e-05
-0.00015421
-5.40724e-05
0.000155218
-0.000110068
-1.7611e-05
-1.8332e-05
-9.32916e-05
6.1081e-05
0.000128738
-1.27673e-06
8.71295e-05
-3.26153e-05
9.35316e-06
0.000158243
-0.000207379
0.000191287
0.000152116
3.43455e-05
7.45128e-06
-7.50027e-05
5.28398e-06
-4.5783e-05
-3.87032e-05
-8.52502e-05
0.000118016
1.67604e-05
-0.000188351
-2.60517e-05
-2.62605e-05
2.48288e-05
5.29292e-05
0.000112094
-5.8855e-05
3.55477e-05
-7.09667e-05
6.70599e-05
9.06003e-05
4.96747e-05
1.12008e-05
0.000104445
-3.76289e-06
-3.03801e-05
-0.00016318
-4.05643e-05
7.46653e-05
2.66272e-05
6.1177e-05
0.000300876
5.92315e-05
-3.77559e-05
-1.80404e-05
-2.89232e-05
1.40527e-05
0.000169222
-6.48617e-05
-1.75397e-05
4.79301e-05
-3.84683e-06
6.718e-05
-8.33359e-05
-9.27162e-05
8.07892e-05
-7.05078e-05
-3.62195e-05
-0.000102015
-0.0001796
1.61768e-05
4.55619e-05
9.39355e-05
-8.16586e-05
-5.17159e-05
-0.000157958
-9.15908e-05
-2.98435e-05
9.62386e-05
-7.20255e-05
-3.48957e-05
4.7059e-05
0.000153372
-0.000179637
6.47013e-05
6.36411e-05
-1.68915e-05
0.000151775
5.39816e-05
-4.72316e-05
0.00015606
1.87712e-05
2.08949e-05
-0.000103549
5.67944e-05
3.10112e-05
-1.68663e-05
-0.000166203
-0.000101927
-6.43391e-05
-0.000120319
-0.000145506
8.31477e-05
-6.39196e-05
4.17747e-05
-1.26255e-05
0.000152678
-0.00010609
-0.000139646
-0.000196424
-0.000116576
-6.62279e-05
-3.32308e-05
-3.06836e-06
3.35316e-05
-2.11145e-05
-0.000118919
-0.0001441
-2.16392e-05
-2.12217e-05
-3.04702e-05
6.10035e-05
-3.407e-05
3.47832e-05
-8.97303e-05
-5.91622e-05
2.14281e-05
-6.05411e-05
-2.51511e-05
-4.05634e-05
-8.38058e-05
-1.17219e-06
8.07856e-05
7.70186e-05
1.2159e-05
-0.000162752
-0.000134005
-5.24811e-05
0.000124067
-3.02373e-05
0.000152434
-8.99134e-05
-0.000184343
-2.74114e-05
-3.57523e-06
5.88167e-05
0.000111845
4.77851e-05
-0.000216085
-0.000149516
-5.14077e-05
0.000199754
0.00010822
3.23125e-05
-5.94635e-05
-0.000166
-8.37049e-06
-6.15588e-05
-0.00011834
-7.94258e-05
-0.000135196
-0.000130509
-2.12495e-05
8.37084e-05
-5.35543e-05
-0.000105284
2.13312e-05
6.83758e-05
3.78573e-05
-1.43572e-05
-6.33894e-05
6.73342e-05
-0.00013848
-1.86132e-05
0.000154405
0.000126996
0.000136869
-4.91026e-05
1.13226e-06
0.000118684
-4.93802e-05
0.000162038
6.65933e-05
1.21982e-05
3.34135e-06
-0.000176691
-6.33873e-05
-0.000123192
-7.97529e-05
0.000142406
-1.12118e-05
8.28991e-05
0.000146811
-3.46055e-05
9.01725e-05
-2.73574e-05
-0.000193735
3.99537e-07
-6.23688e-05
3.79711e-05
6.83882e-06
0.000155983
-1.08003e-05
-5.32878e-05
-0.000127554
8.68409e-05
4.73695e-05
-1.67328e-05
3.25727e-05
0.000154079
-3.44655e-05
-6.23439e-05
-0.000133167
-0.000176411
0.000105815
-3.64028e-05
-2.72689e-05
0.000126239
2.12897e-05
-0.000223623
5.42095e-05
8.6709e-05
9.45532e-05
-1.34199e-05
0.000130351
1.44473e-05
-8.32137e-05
9.28738e-06
-1.59156e-05
9.03684e-05
-5.27718e-05
9.4265e-05
4.88472e-05
-0.000266446
-5.40593e-05
3.20491e-05
-0.000149659
3.29674e-05
1.89792e-06
8.04092e-06
-0.000207956
5.72472e-05
7.06043e-05
-0.000106489
3.8426e-05
9.36791e-05
-5.56095e-05
9.16481e-05
6.36582e-05
8.53487e-05
9.25199e-05
-7.77667e-05
-7.94227e-05
4.63525e-05
-8.21577e-05
-2.18035e-05
-8.81755e-05
-0.000179404
1.9515e-05
2.7974e-05
-0.00013656
0.000130453
0.000112183
-0.000114625
0.000157184
-2.65399e-05
-1.40795e-05
0.000167794
6.6825e-05
-3.06285e-05
3.40624e-05
-6.27629e-05
2.84291e-05
0.00013234
-3.44623e-05
-8.13276e-05
6.95017e-05
-1.96554e-05
-5.99725e-06
-5.1395e-05
-0.000180664
-1.88957e-05
-0.00022076
-0.000105542
0.000130609
-9.06232e-05
-7.04376e-05
0.000173382
9.94455e-05
-7.26397e-05
-2.59773e-05
-5.92966e-05
4.36871e-05
3.05719e-05
-2.24754e-05
-0.000181528
-2.06449e-05
9.19425e-06
-2.9279e-05
0.000134349
-1.1466e-05
6.88216e-05
-0.000278939
-6.15126e-05
-6.9784e-05
8.17692e-05
6.72175e-05
0.000123281
7.04862e-05
-9.25926e-05
-0.000109177
-0.000122757
-6.32578e-06
-3.19072e-05
-7.98291e-05
-7.29971e-06
0.000194498
-1.12641e-05
1.17731e-05
0.000132543
2.32137e-05
7.7336e-05
3.34012e-05
4.97669e-05
-7.95181e-05
6.61938e-06
3.57083e-05
-4.70566e-05
1.06368e-05
1.6244e-05
0.000176467
7.28669e-05
-7.0371e-05
-3.56341e-05
8.25515e-05
5.07791e-05
0.000269487
-4.52569e-05
-0.00012955
-0.000114424
-1.73654e-05
-0.000100828
-6.01199e-05
-0.000127166
5.74174e-05
0.000117962
0.000215943
9.99076e-06
3.09008e-05
-8.92034e-05
-6.56265e-05
3.91889e-06
-0.000136369
-4.0743e-05
0.000120977
-8.35618e-06
0.000132193
-6.49514e-05
-1.11193e-05
0.000199483
3.06859e-06
9.94965e-05
0.000119787
-0.000108492
-7.90677e-05
-9.72475e-05
2.61128e-05
-4.65598e-05
-0.000128117
-0.000141793
-7.33432e-05
0.00016234
-0.000153348
-8.54402e-05
-8.51016e-05
0.000106899
-4.81034e-05
-0.000145271
-9.40457e-05
-5.82157e-05
-1.42887e-05
-6.11283e-05
-8.34351e-05
0.000127484
0.00015179
7.08173e-05
6.43143e-05
-2.77312e-05
3.91719e-05
8.44751e-05
0.000251289
0.00025013
-0.000224895
0.000119895
0.000148233
3.656e-05
8.93489e-05
-0.000163526
-0.000195543
7.8866e-05
0.000130828
-0.000102967
0.000137191
-8.33522e-05
-0.000172446
-0.000175263
-5.90659e-05
0.000113768
-4.24804e-05
0.00011905
0.000104836
-0.000109133
-1.05123e-06
8.25148e-05
3.90175e-05
5.87506e-05
-6.6104e-05
-0.000174803
9.3606e-05
9.22943e-05
-0.000110251
0.000108953
0.000130969
-4.3632e-05
0.000149431
9.97793e-05
-0.000140472
-5.20863e-05
0.000218088
0.00015635
2.75304e-05
-0.000107237
-4.53612e-05
5.54053e-05
0.000134653
-0.000166356
-0.000248736
-0.000186249
8.39868e-05
2.27077e-05
4.4125e-05
-7.15e-05
8.98661e-05
-0.000220879
-0.000197387
-2.37988e-05
-8.63703e-05
-0.000123306
5.00885e-05
-9.49402e-05
6.36898e-05
7.69286e-05
-2.30768e-05
0.000240388
1.62236e-05
0.000167627
-0.000110487
3.04752e-06
2.61341e-05
0.000140469
0.000139065
4.1767e-05
-5.36254e-05
-2.046e-05
0.000115655
0.000125479
8.79362e-05
-0.00022059
-0.000117432
-7.88253e-05
1.41268e-05
8.63178e-05
5.58519e-05
0.000190567
8.21005e-05
8.36111e-05
-5.55286e-05
0.000184638
-5.40304e-05
-0.000143927
6.42828e-05
5.86878e-05
0.000108501
4.49539e-05
-6.02473e-06
-6.64607e-05
5.41356e-05
0.000204736
8.09043e-05
-4.08429e-05
9.7899e-05
0.000139092
-9.36245e-05
-0.000122607
6.52643e-05
8.14998e-05
3.81405e-05
0.000249123
3.31709e-05
-4.0682e-05
-0.000110368
6.77729e-05
-5.9192e-05
-4.96674e-06
-3.13018e-06
-0.000104922
-1.4428e-05
-1.26497e-05
-3.3715e-06
2.33458e-05
-0.000135189
8.23534e-05
8.14442e-07
5.43578e-05
0.000145648
5.42941e-05
-0.000194218
2.3003e-05
0.000169285
-8.2967e-05
7.74603e-05
-6.23538e-05
-2.88782e-05
1.16177e-05
-4.71553e-05
1.02213e-06
-1.38138e-05
-2.42132e-05
0.000286969
0.000142574
-2.64496e-07
5.42717e-06
-0.000131813
-0.000153385
-0.000209741
-1.94145e-05
2.23024e-05
0.000113716
2.12572e-05
-5.87313e-05
-5.00706e-05
1.64907e-05
4.38247e-05
0.000118232
-3.17846e-05
-1.7382e-05
7.67072e-05
1.92005e-05
0.00015577
0.000128989
-4.30621e-05
-7.7794e-05
-4.01165e-05
-6.21381e-05
5.37295e-05
0.00012529
3.81728e-05
4.494e-05
-0.000118578
7.33638e-05
0.000121211
6.01622e-05
-6.24708e-06
5.11949e-05
-5.85348e-05
-0.000227276
2.7716e-05
-0.000110698
-8.68352e-05
-0.000103662
1.0505e-05
0.0001862
2.85099e-05
-2.88179e-05
-3.38494e-05
-3.54553e-05
-9.82449e-05
-6.08281e-05
9.59611e-06
8.60034e-05
0.000119773
2.77781e-05
8.30714e-05
0.000195322
-0.000141859
9.78648e-05
0.000207747
7.68735e-05
0.000158835
8.01741e-05
2.80335e-05
-8.78875e-05
-0.000118007
-2.80305e-06
1.31801e-05
9.18043e-05
4.29616e-05
0.000106981
-0.000168603
-0.000132624
2.82304e-05
0.000153615
0.000124269
-4.55257e-05
-0.000184764
-0.000136832
-0.000147465
-1.98779e-06
-4.14127e-05
0.000100876
-3.5077e-05
9.10222e-05
-7.76377e-05
4.50341e-05
2.0382e-06
0.000115056
7.06265e-05
-8.19622e-06
-1.1728e-05
0.000108793
-0.000107294
-1.28931e-05
-5.16314e-05
6.576e-05
8.69466e-05
-7.51981e-05
-8.46412e-05
0.000119778
3.0481e-05
-5.3687e-05
-7.02979e-05
0.000229515
0.00015516
-4.00528e-05
-7.32361e-05
-4.88204e-05
-0.00016302
-6.84801e-05
2.45308e-05
0.000135586
6.07097e-05
0.000109807
-0.000116538
0.000127226
1.509e-05
2.05208e-05
4.66635e-05
8.24791e-06
-3.49995e-05
3.30248e-05
8.78596e-05
-0.000108047
-0.000129848
0.000135109
-8.29096e-05
-5.16048e-05
0.00018471
0.000153955
-5.67541e-05
-7.78303e-05
-0.000105371
-0.000192651
-3.48954e-05
-0.000105042
-0.000132598
-5.82895e-05
2.58752e-05
-0.000204536
4.3618e-05
0.00013402
0.000124028
6.31508e-05
-8.08949e-05
-6.92527e-05
3.3064e-05
2.10479e-06
-1.90153e-05
3.76008e-05
8.11019e-05
3.9882e-05
6.81554e-05
6.00938e-05
-0.000101059
9.09159e-05
0.000100844
0.000170812
0.000128952
6.91353e-05
6.20682e-05
-2.32751e-05
2.54031e-05
1.07919e-05
-0.000113493
-2.67474e-05
6.02403e-05
-0.000188199
0.000153514
-5.46663e-05
0.000235752
4.60739e-05
-7.60984e-06
-6.29255e-05
-0.000132238
0.000197757
-1.66378e-05
-5.69327e-05
-5.10549e-05
-1.98651e-05
-7.4035e-05
-5.76258e-05
0.000136397
-9.8604e-05
-0.00010882
-0.000122235
-8.39792e-05
0.000152846
-3.07482e-05
7.73647e-05
3.01858e-05
-5.14964e-05
-0.000295074
5.28063e-05
-5.96113e-05
9.40012e-05
-0.000225365
6.12689e-05
8.90491e-05
4.38893e-05
-0.000169188
-0.000221128
2.7057e-05
0.000224573
3.5679e-05
-9.2861e-05
1.20294e-05
4.56616e-06
-3.76158e-05
-5.63501e-05
8.39091e-05
-0.000106654
-3.11672e-05
-0.000112858
4.72558e-05
-1.35965e-05
3.71072e-05
-4.16102e-05
1.55764e-07
1.70221e-05
2.78158e-05
0.000138348
-7.90635e-05
-8.73272e-05
-2.98651e-05
0.000220532
0.000100692
6.35596e-05
1.51808e-05
7.85427e-05
-4.23181e-06
9.35213e-05
2.79684e-05
-8.7833e-05
3.05338e-05
2.92099e-05
2.05197e-05
-5.48308e-05
4.40537e-05
1.84542e-06
1.0679e-05
8.31858e-05
1.25653e-05
-2.69633e-05
-4.0266e-05
-5.00912e-05
0.00013564
3.20792e-05
2.36901e-05
3.43309e-05
-3.59865e-05
0.000110622
-4.91282e-05
-0.000116121
0.000149182
0.000140223
0.000185832
-9.38636e-05
8.7664e-05
0.000186629
9.71345e-05
-6.78438e-05
1.93529e-05
2.69967e-05
-0.000124004
0.00017613
-0.000101035
-0.000147648
1.14569e-05
0.000137622
4.22018e-05
0.00011577
0.000255798
0.000155022
7.24284e-05
-4.8166e-05
2.51399e-05
-0.000158606
-9.82108e-05
-0.000172393
-3.26493e-05
-7.49179e-05
4.69037e-05
0.000117825
0.000129321
0.000121864
3.9214e-05
0.000101184
-7.31006e-05
7.35868e-05
-9.15327e-06
-6.47609e-05
-2.06806e-05
9.42042e-05
0.000127432
-5.68867e-05
-5.44477e-05
0.000202227
-4.11144e-06
-3.38217e-05
5.1474e-05
1.38186e-05
-4.60297e-05
5.92556e-05
-0.000167135
0.000134943
0.000117802
0.000100795
-9.97947e-05
5.99602e-05
0.000109804
1.78319e-05
6.79662e-05
-5.59888e-06
4.98961e-05
-0.000106503
4.76863e-05
-0.000144998
-4.11782e-05
-3.71393e-05
-0.00013066
-8.95861e-05
0.000162198
3.7345e-05
3.978e-05
3.99392e-05
-8.57736e-06
-5.47441e-05
5.20851e-05
4.92437e-05
-6.48749e-05
-5.89992e-05
7.18399e-07
-1.54055e-05
-4.60518e-05
0.000102187
7.12071e-05
-1.26638e-05
0.000135732
-3.46729e-05
-0.000146073
-2.67312e-05
1.47431e-05
-9.52272e-05
0.000109384
-8.98809e-05
-8.13789e-05
-3.44657e-05
-1.85054e-05
0.000116723
0.000105579
0.000147144
-1.00378e-05
1.52088e-05
4.59971e-05
0.000140172
-0.000130337
7.4835e-05
0.000194393
-0.000120944
-4.89855e-05
-0.000109865
8.92569e-05
0.000162542
-4.29474e-05
3.83701e-05
3.38119e-05
-0.000120588
-6.37508e-05
7.35575e-05
5.51364e-05
7.22343e-05
0.000116483
-4.36589e-05
-0.000193143
-3.93741e-05
-0.00011823
-0.000197749
-6.01776e-05
-4.99194e-05
4.41802e-05
-4.58542e-05
7.20588e-05
-0.000115695
-4.17203e-05
-0.000110517
-0.000250317
-7.64509e-05
0.000149923
5.71405e-05
-4.06981e-05
-2.62351e-05
9.30782e-05
-0.000121179
4.81009e-05
-5.79974e-05
-7.22074e-05
8.87651e-05
-2.57406e-05
-3.10403e-05
-0.000140225
7.00189e-05
-1.3428e-05
-4.38499e-05
-9.94144e-05
1.20753e-05
1.48884e-05
-0.000145632
0.000107602
0.000124932
-2.24523e-05
0.000127403
-0.00014088
1.71191e-05
-7.87163e-05
9.70203e-05
4.23002e-05
0.000144311
0.000147238
-6.85009e-05
-4.10535e-05
2.34592e-05
-2.55917e-05
-9.10042e-05
2.61562e-05
-6.90762e-05
4.53184e-05
8.77792e-05
-4.97404e-05
8.29357e-05
0.000150855
0.000136406
-9.9999e-05
-6.57265e-05
2.32469e-05
-0.000203804
-0.000115421
-3.93966e-05
-4.85041e-05
0.000118058
-0.00012266
-0.000114308
8.88405e-05
0.000239977
0.000108386
4.59761e-05
0.000100159
-5.36777e-05
-9.97924e-05
6.60794e-05
0.000102726
3.74771e-05
-1.52151e-05
0.000111879
2.30393e-05
-3.49132e-05
-5.3484e-05
0.000163738
8.06975e-05
-1.94182e-05
2.52477e-05
1.24449e-05
0.000224816
-3.03634e-06
2.85162e-05
7.85347e-05
0.000104598
-3.64173e-05
-0.000106728
-0.000193836
2.15853e-05
-3.68932e-05
0.000217457
0.000213363
4.87883e-05
-4.67618e-05
7.44562e-05
0.000171794
-0.00021336
0.000113682
-1.87929e-06
7.7769e-05
0.000134272
0.000271038
0.000123166
-2.67723e-05
0.000135158
2.86346e-05
-0.000124915
-0.000164199
-8.23729e-05
-7.04824e-05
0.000157282
1.24371e-05
-7.40136e-05
-1.83365e-05
3.5407e-05
-1.56286e-05
-2.94041e-05
-5.99595e-05
2.04686e-05
-0.000110142
5.1316e-05
2.5877e-05
5.59962e-05
-5.75464e-05
-4.22481e-05
9.3706e-05
-0.000132778
0.000219958
-3.35254e-05
3.50364e-06
3.51197e-05
9.64706e-05
-0.000121791
-0.000116528
1.77987e-05
-0.000104022
9.73003e-05
0.000242543
1.09541e-05
2.83308e-05
0.000112411
8.79762e-06
2.18821e-05
0.000171804
-2.61178e-06
2.49305e-05
1.10656e-05
5.13286e-05
-8.12679e-05
6.95518e-05
-4.49748e-05
-1.54299e-05
3.77581e-05
3.37865e-05
5.56605e-06
0.000121269
0.000157408
5.74533e-06
-7.99703e-05
1.22539e-05
1.31562e-05
-4.60108e-06
-0.000117094
9.95285e-05
-4.12813e-05
0.00012031
2.53088e-05
3.27127e-06
0.000280174
-9.53418e-06
-0.00013978
9.21037e-05
-3.2539e-05
5.60009e-05
-1.15368e-06
0.000234313
0.000124248
0.000162226
-0.000105616
-8.23238e-05
-5.04986e-06
3.3902e-05
-4.27432e-05
-4.1828e-05
3.79581e-05
7.95636e-05
0.000146459
-2.18264e-05
6.84792e-05
2.2334e-05
5.77238e-05
-0.000245637
-5.55598e-05
-4.20539e-06
7.40658e-05
-2.09311e-05
-8.48408e-05
-3.6652e-05
-2.25218e-05
1.72714e-05
-0.000129202
0.00010206
8.01543e-06
4.18061e-05
1.43156e-05
-1.85877e-05
-3.95407e-05
-2.07758e-05
0.000132085
-0.000146461
-0.000127549
-8.51649e-05
7.13724e-05
2.00669e-05
7.97911e-06
-3.25597e-05
-9.82831e-05
-7.66787e-05
0.000102447
-7.79101e-05
5.56945e-05
-4.66413e-05
-4.83856e-05
-7.70588e-06
0.000144045
-1.65391e-05
0.000130937
6.76415e-05
0.000102117
0.000199625
0.000192829
7.4844e-05
0.000122692
4.26715e-05
6.35755e-05
-0.000188354
-2.78561e-05
-0.000109104
-7.15432e-05
-0.00013446
-6.66017e-05
-0.000124724
-6.1007e-05
-9.00585e-05
7.39129e-05
-1.50544e-05
-7.90216e-06
-0.000123133
-0.000151322
-5.4365e-05
7.01766e-05
-0.000125346
-0.000167983
8.28608e-05
-3.56861e-05
4.19929e-05
3.88948e-05
1.08238e-05
-3.10615e-05
-7.10618e-05
0.000155078
-0.000210784
0.000100533
0.000127853
7.44099e-05
5.6292e-05
0.00011047
8.95709e-05
0.000200696
0.000118837
7.10338e-05
6.23278e-05
2.9565e-05
-0.000100219
-0.000132015
0.000215815
0.000124177
0.000169435
-0.000136741
-7.56779e-05
-4.99951e-05
-0.000117164
6.03241e-05
4.0536e-05
-4.89259e-06
2.91051e-05
-0.000222977
-7.92742e-05
-0.000105033
6.36085e-05
-7.31321e-05
0.00023001
-5.21832e-05
-0.00016851
5.93916e-06
0.000124649
0.000152841
2.52831e-05
7.77773e-05
8.68287e-05
5.1678e-05
-1.9375e-05
-3.72963e-05
-4.22247e-05
0.000136354
-7.07078e-05
-0.000116026
7.02802e-05
2.18523e-05
-0.000111226
8.27039e-05
9.63679e-05
-4.14231e-05
-4.51177e-05
7.28871e-05
3.89734e-05
3.25943e-05
-2.43679e-05
8.24091e-05
0.000169737
6.93223e-05
-0.000128158
-3.4633e-05
-0.000126879
-9.6318e-05
2.35628e-05
-0.000100957
-6.63567e-09
-8.98477e-05
-2.88014e-05
-4.93542e-05
7.85993e-05
0.000125877
1.1479e-05
-2.0701e-05
2.95257e-05
-0.000147679
5.05556e-05
-6.21974e-05
8.82875e-05
5.37103e-05
2.53874e-05
4.4019e-05
-5.215e-05
1.88383e-05
-7.52811e-06
0.00015884
0.000146721
-1.37836e-06
-8.69152e-05
7.18933e-05
0.000196366
8.93709e-06
-0.000111052
-9.31291e-05
-2.09042e-05
-9.77708e-05
4.57966e-05
0.000178408
0.000168703
3.88289e-05
4.06522e-05
-0.000133828
-6.24395e-05
2.55333e-05
-1.33869e-05
0.000144759
0.000114771
-0.000197479
-3.70017e-05
0.000161103
-3.41954e-05
5.5891e-06
0.000117956
0.000130792
1.26413e-05
0.000141782
0.000110763
-6.79522e-05
0.000125273
-6.37467e-06
-0.000172772
-9.46778e-05
-1.69027e-05
-0.000137021
-4.3119e-05
-5.46887e-05
2.70306e-05
-0.00011659
6.01701e-05
-4.65028e-05
-0.000235661
2.73343e-07
0.0001009
-2.3796e-05
1.87412e-05
5.77811e-05
0.00011435
0.000150495
-8.54935e-05
-2.55378e-05
4.94418e-05
5.73348e-05
-0.000126224
-4.07572e-05
5.28749e-05
-3.52843e-05
-3.77187e-05
4.39866e-05
0.000101901
4.93095e-05
5.80398e-05
0.000179951
4.93019e-05
0.000125392
0.000167163
0.000153346
-7.30766e-05
-0.000198703
-8.84196e-05
-0.00011752
-5.68179e-05
-7.04161e-06
-0.000136687
-4.32541e-05
2.5778e-05
-9.58198e-05
-9.1095e-07
-0.000129084
-3.28005e-05
-6.94534e-05
0.000177803
4.80833e-05
-4.41109e-06
-5.04082e-05
-7.77113e-05
-0.000123341
9.0044e-05
2.3583e-05
3.92203e-07
2.87205e-05
-8.62482e-05
-0.000149915
0.000141522
7.42401e-05
6.99586e-06
2.24167e-05
-2.94719e-05
5.53832e-05
-0.000125171
-6.83349e-05
-2.6859e-05
6.44103e-06
2.6932e-05
0.000162487
0.000113466
-0.000101681
-0.000158567
-1.61375e-06
9.50231e-05
-9.54543e-05
-6.563e-05
8.38339e-05
-3.35122e-05
-3.86492e-05
-4.68993e-05
0.000159493
0.00013235
-0.00010775
7.35442e-05
0.000181474
4.09507e-05
0.000137506
-0.000123678
-0.000230596
-7.37133e-05
-7.20997e-05
7.09268e-05
-5.85192e-05
-0.000101114
-2.35678e-05
0.000132724
0.000192804
1.89833e-05
4.84118e-05
-8.98381e-05
7.51733e-05
-6.46608e-05
5.94259e-05
-1.73389e-06
-7.34206e-05
3.40157e-05
-0.000137666
1.57407e-05
-7.79731e-05
-0.000156867
5.90364e-05
-9.14019e-05
-3.33055e-05
-3.24422e-05
-2.0394e-05
6.24964e-06
2.71613e-05
-0.000263712
-0.000231228
9.39132e-05
0.000124881
0.000123689
6.93556e-05
7.40027e-05
8.39041e-05
-0.000133335
3.5534e-05
-1.17407e-05
5.81578e-05
-6.82513e-05
5.61012e-05
-0.000107387
9.43076e-05
0.000150952
0.000118764
0.000107688
0.000172547
3.06927e-05
-8.37299e-05
-5.12743e-05
3.06917e-06
4.98607e-07
2.72729e-05
1.77639e-05
9.76169e-05
3.64317e-05
0.000118633
0.000139695
6.18205e-05
8.55117e-06
4.93247e-05
5.71946e-05
-4.1089e-05
-4.34769e-05
-6.89132e-06
-8.42353e-05
-5.40121e-06
-8.90243e-05
-4.59097e-05
-1.51964e-05
-1.36008e-05
0.000241715
6.93442e-05
2.79594e-05
-6.81896e-05
9.88833e-05
3.91284e-05
-0.000168063
6.28643e-05
0.000170898
-3.21376e-05
8.10807e-05
7.45461e-05
1.81098e-05
7.65927e-05
0.000122059
-2.77499e-05
-2.79036e-06
-9.4164e-05
1.25251e-06
0.000152469
0.000158772
-4.83317e-05
-6.98689e-05
0.000111589
0.000126343
-4.83782e-05
-8.47937e-05
7.46453e-05
-0.000195
-5.5592e-05
2.44154e-05
7.81578e-06
7.56745e-05
1.67917e-05
0.000103341
-5.02944e-05
-2.88133e-05
-3.80414e-05
4.36309e-05
-3.0176e-05
-2.1233e-05
-4.1027e-05
-8.54954e-07
5.542e-05
4.6137e-05
9.54717e-05
0.000108934
5.51245e-05
6.07148e-05
1.87706e-05
-0.00012675
-0.000180633
-2.99062e-05
-0.000162411
-9.31683e-05
2.93599e-07
4.75666e-05
-7.25811e-05
9.32368e-05
0.000122499
-0.000141478
-5.12071e-05
5.8886e-05
-6.00812e-05
-4.60602e-05
-4.10969e-06
-5.73951e-06
-3.76704e-05
4.78718e-05
4.96578e-05
-2.82881e-05
-9.91094e-05
-0.000116882
4.84056e-05
2.25566e-05
3.68024e-06
-5.73602e-05
-6.20959e-06
5.56075e-05
0.0001172
9.53692e-05
5.70696e-05
-0.000161474
7.81722e-05
1.51631e-05
-0.000107184
8.02136e-05
-4.80141e-05
1.08227e-05
-1.04018e-05
-0.000239867
7.21357e-05
-7.54009e-05
-0.000158914
-2.53939e-05